ITEM: TIMESTEP
0
ITEM: NUMBER OF ATOMS
400
ITEM: BOX BOUNDS pp pp pp
0.0000000000000000e+00 2.0000000000000000e+02
0.0000000000000000e+00 2.0000000000000000e+02
0.0000000000000000e+00 2.0000000000000000e+02
ITEM: ATOMS id x y z vx vy vz
1 158.802 32.9521 52.1423 0.00938545 0.0239449 -0.0168843
2 159.542 32.9521 52.1423 -0.00722231 0.0142189 -0.0107179
3 144.679 133.017 141.999 -0.00280537 -0.000966231 -0.0115014
4 145.419 133.017 141.999 -0.00752698 -0.00497005 0.0069233
5 156.611 193.883 142.045 -0.0015919 0.00376505 0.0162478
6 157.351 193.883 142.045 -0.0225403 -0.0222231 0.00167198
7 47.0722 72.1859 54.4508 -0.00232395 0.0106724 -0.013399
8 47.8122 72.1859 54.4508 -0.00274158 0.0119419 0.0262398
9 12.9207 52.795 166.341 -0.010037 -0.00905771 0.0279075
10 13.6607 52.795 166.341 0.00513746 -0.000795065 0.0385297
11 25.1886 57.5689 36.6854 0.0235792 -0.0262574 0.0177168
12 25.9286 57.5689 36.6854 -0.0126006 0.00180841 -0.0181278
13 48.469 48.827 7.181 0.00391389 -0.00981411 0.00711048
14 49.209 48.827 7.181 -0.013478 -0.00203784 0.00617078
15 142.953 77.1075 127.748 -0.00974737 0.0356251 -0.0143569
16 143.693 77.1075 127.748 0.00306468 -0.00315688 -0.0181063
17 159.362 88.6384 182.408 -0.0111144 -0.0118405 -0.0119036
18 160.102 88.6384 182.408 0.0027402 0.00922776 0.0254316
19 7.6397 112.733 34.9237 -0.022961 -0.0116002 0.0263225
20 8.3797 112.733 34.9237 -0.0173955 0.029616 0.000481004
21 178.492 26.8157 50.2854 -0.0140171 0.0115256 -0.0108825
22 179.232 26.8157 50.2854 -0.0257646 0.00427699 0.0230421
23 91.3759 134.869 96.1975 -0.0126401 -0.0217299 0.0151791
24 92.1159 134.869 96.1975 -0.0206127 -0.00215621 -0.0176896
25 34.6923 154.315 27.4848 0.00110046 -0.00482975 -0.0115423
26 35.4323 154.315 27.4848 0.0355357 -0.00851629 0.00314619
27 195.898 35.0259 11.5386 -0.00105691 0.00264819 0.0115308
28 196.638 35.0259 11.5386 0.0157762 0.00449101 0.00858799
29 151.908 162.394 131.894 -0.014161 -0.00665911 -0.0131568
30 152.648 162.394 131.894 -0.0274548 0.0143582 -0.010236
31 96.0795 36.2 141.755 0.000366592 -0.00742249 0.0103685
32 96.8195 36.2 141.755 0.0153341 0.0206155 -0.0168815
33 120.37 3.1652 18.8717 0.00702348 0.0120556 -0.00455558
34 121.11 3.1652 18.8717 0.00790006 -0.000479706 0.0157638
35 121.86 20.8019 30.2938 -0.0150073 -0.0157844 0.00694019
36 122.6 20.8019 30.2938 0.020156 0.00165977 0.0152739
37 9.1869 143.75 42.7889 0.0117363 0.00318781 -0.00379359
38 9.9269 143.75 42.7889 0.00597203 0.0120779 0.0171055
39 93.7444 32.3903 23.8227 0.0317116 0.000769967 0.0273508
40 94.4844 32.3903 23.8227 -0.00325141 -0.00568419 -0.0140958
41 154.393 151.46 88.7369 0.0153963 -0.014276 0.0169367
42 155.133 151.46 88.7369 0.035753 -0.0122748 -0.00734112
43 179.487 92.5118 86.5094 -0.00331927 -0.00672759 -0.0144707
44 180.227 92.5118 86.5094 0.0194825 -0.0318599 0.00472503
45 130.221 122.767 175.451 -0.00472371 0.0127316 -0.00905698
46 130.961 122.767 175.451 -0.00467655 0.00539895 0.0139545
47 105.389 50.3069 85.9406 0.0123504 -0.0410372 -0.0246783
48 106.129 50.3069 85.9406 0.00822438 0.0313469 0.0144567
49 2.3453 42.0331 92.7414 -0.00826911 0.0159784 0.00385607
50 3.0853 42.0331 92.7414 0.00801531 -0.0032758 0.0134379
51 116.68 107.663 172.964 -0.0160383 0.00642053 0.0157056
52 117.42 107.663 172.964 0.00193765 0.0268241 -0.00344637
53 74.2011 6.1316 177.635 -0.0164555 -0.013419 0.00191492
54 74.9411 6.1316 177.635 0.0121891 0.0303619 0.00228169
55 62.9236 163.535 194.224 -0.0217085 0.00465123 0.0149747
56 63.6636 163.535 194.224 -0.0142125 0.00205931 -0.010131
57 75.9317 16.0525 180.237 0.0315173 -0.0028772 0.0124035
58 76.6717 16.0525 180.237 0.0100407 0.0151561 -0.00096311
59 62.8312 185.388 56.2778 0.020727 0.000605291 -0.0187654
60 63.5712 185.388 56.2778 -0.0137738 -0.00150436 -0.00652783
61 140.978 117.262 177.962 0.0315941 0.00682268 -0.0107385
62 141.718 117.262 177.962 0.00832327 -0.00376047 0.0289182
63 44.2941 107.109 103.918 -0.00376299 -0.0187719 -0.0106661
64 45.0341 107.109 103.918 0.00564274 -0.00386525 0.00430032
65 15.2995 179.94 73.5798 -0.00238769 -0.00566972 0.0161365
66 16.0395 179.94 73.5798 -0.00468246 0.0151491 -0.00717043
67 19.5232 34.2662 62.79 0.0139003 -0.00992086 0.0113205
68 20.2632 34.2662 62.79 -0.0345505 0.00198455 0.00648682
69 156.022 198.212 58.3316 -0.0199367 0.0272191 -0.0082357
70 156.762 198.212 58.3316 0.00421068 -0.0204737 -0.0327874
71 110.205 8.2734 4.5419 -0.00226337 0.0271932 -0.00579024
72 110.945 8.2734 4.5419 0.0217747 0.0206474 -0.00634125
73 198.208 132.762 130.903 -0.0126811 -0.0105698 0.0309051
74 198.948 132.762 130.903 0.00520345 0.00154824 0.0197941
75 110.596 83.1603 71.6709 -0.0118177 0.00168566 0.0387807
76 111.336 83.1603 71.6709 -0.0117504 0.00331501 -0.00495107
77 84.645 191.453 180.098 0.011528 0.0147823 0.0199777
78 85.385 191.453 180.098 0.0287303 -0.0052833 -0.022246
79 160.208 122.324 167.272 0.0125895 -0.0164842 -0.0264844
80 160.948 122.324 167.272 -0.0122931 0.0253775 -0.00382852
81 12.9258 188.194 160.853 -0.00968294 0.0241273 -0.00346516
82 13.6658 188.194 160.853 -0.0332993 -0.00873316 0.00560081
83 148.301 2.0291 144.562 0.00940041 0.00362467 -0.00364318
84 149.041 2.0291 144.562 -0.00717204 0.0123521 0.00893801
85 23.353 33.6035 93.8101 -0.0203503 -0.0333352 0.00303018
86 24.093 33.6035 93.8101 0.0233131 0.032093 -0.00782915
87 79.728 36.6522 132.457 -0.00335161 -0.00411623 0.0307031
88 80.468 36.6522 132.457 0.00946913 -0.0174885 -0.0188009
89 81.4111 49.0829 9.2974 -0.00536539 0.00351293 -0.00434093
90 82.1511 49.0829 9.2974 -0.0165228 0.0232289 0.0227624
91 192.428 39.8685 51.2841 0.0242614 -0.0237306 -0.0160076
92 193.168 39.8685 51.2841 -0.0285411 -0.00945831 -0.00178662
93 133.828 164.267 126.702 0.00218207 0.00982314 0.00347294
94 134.568 164.267 126.702 -0.0149035 0.0205094 -0.0141409
95 142.244 121.148 127.394 -0.0141584 0.013981 0.0047624
96 142.984 121.148 127.394 -0.0130655 -0.0282576 -0.0074496
97 37.9317 99.817 66.4904 -0.00394939 -0.0104978 -0.0203794
98 38.6717 99.817 66.4904 0.000189243 -0.0267954 0.0296639
99 145.641 43.6974 65.1981 0.00296925 -0.0222916 0.0105323
100 146.381 43.6974 65.1981 -0.0260606 -0.0116721 -0.0133402
101 64.4401 103.61 70.0563 -0.0174196 0.0160303 0.00698945
102 65.1801 103.61 70.0563 -0.0180294 -0.00974357 -0.0212803
103 14.8387 39.5846 195.275 0.0159004 -0.0264207 -0.000823558
104 15.5787 39.5846 195.275 -0.00392994 -0.00994525 0.00644779
105 34.6741 9.9224 57.6064 -0.0150574 0.0116508 -0.027018
106 35.4141 9.9224 57.6064 -0.0199798 -0.0129707 -0.0140896
107 76.2246 84.3886 143.3 -0.0160242 -0.0289092 2.79397e-05
108 76.9646 84.3886 143.3 0.00434136 0.0065636 0.00946376
109 10.2254 170.255 75.7381 0.000314809 0.0314777 -0.0200104
110 10.9654 170.255 75.7381 0.0143151 0.00302193 0.0118316
111 185.17 84.0055 131.642 0.0224532 0.021718 -0.00026725
112 185.91 84.0055 131.642 0.00343327 -0.0117685 0.00137925
113 88.4934 119.704 104.311 -0.00100247 0.0194704 -0.0137333
114 89.2334 119.704 104.311 0.0262361 0.00686391 0.00924925
115 39.5821 125.377 16.5466 -0.000806162 0.0186108 -0.0195934
116 40.3221 125.377 16.5466 -0.00754305 -0.0182819 -0.021623
117 59.5057 86.1062 85.4637 -0.00116484 -0.00453228 -0.0020441
118 60.2457 86.1062 85.4637 -0.0038379 0.00189894 0.00474287
119 59.5293 8.4415 161.243 0.000496711 -0.0136616 -0.0117438
120 60.2693 8.4415 161.243 -0.0194935 0.00143269 -0.019539
121 119.455 67.4281 145.308 -0.00178429 -0.0147156 0.00191128
122 120.195 67.4281 145.308 -0.00258896 0.0199426 -0.00535173
123 147.216 167.928 36.2317 0.0273103 -0.0189596 -0.0141978
124 147.956 167.928 36.2317 -0.0251703 -0.00109266 -0.00834781
125 7.0241 131.885 174.791 -0.016785 0.00162219 0.000232131
126 7.7641 131.885 174.791 9.43719e-06 0.028339 -0.00795427
127 91.7175 65.9847 159.013 -0.017235 0.00576849 -0.000230067
128 92.4575 65.9847 159.013 0.0113575 -0.0161738 0.00665595
129 113.038 162.324 168.627 0.00477796 -0.00160732 -0.00746656
130 113.778 162.324 168.627 -0.0402797 0.0162382 -0.0242921
131 131.57 16.4799 83.6176 -0.0290065 -0.01721 -0.00507093
132 132.31 16.4799 83.6176 -0.00812887 -0.031078 -0.0116054
133 115.957 125.136 86.0542 0.0106586 -0.0083717 0.00642735
134 116.697 125.136 86.0542 0.0365872 0.00142717 -0.0321945
135 82.5707 98.5691 117.13 0.0138105 -0.00674147 0.0163706
136 83.3107 98.5691 117.13 0.00896827 -0.012961 -0.0162197
137 104.146 114.456 192.484 -0.0126912 -0.0102244 0.0026831
138 104.886 114.456 192.484 0.00732913 0.004773 0.00295039
139 99.5509 105.078 116.041 -0.000524454 -0.0134483 0.00749309
140 100.291 105.078 116.041 -0.00281591 -0.019485 0.00994175
141 191.807 3.8987 18.9516 0.00264717 -0.0135541 0.00707217
142 192.547 3.8987 18.9516 -0.0018548 0.00410721 0.0104758
143 77.2855 165.92 80.0257 -0.0133169 0.0170708 0.0177829
144 78.0255 165.92 80.0257 -0.0350252 0.00163511 0.00990929
145 97.0951 126.059 27.6569 0.00611745 -0.00293729 -0.00454995
146 97.8351 126.059 27.6569 0.0084346 -0.0136017 0.0246313
147 90.1696 198.889 41.2715 -0.0186298 0.00243526 -0.00751631
148 90.9096 198.889 41.2715 0.0139111 -0.000821664 0.00245371
149 175.644 107.001 52.6126 0.0294784 0.015127 -0.0037381
150 176.384 107.001 52.6126 -0.00546655 0.0123461 0.0222871
151 158.194 199.074 84.6911 0.016572 0.00625124 0.00843084
152 158.934 199.074 84.6911 -0.0225416 0.00564821 -0.00846168
153 105.135 103.597 197.608 0.0187565 0.00988235 0.0276684
154 105.874 103.597 197.608 0.00250527 -0.00927514 0.00535042
155 185.825 55.0109 156.541 -0.0129369 0.0198559 -0.0128932
156 186.565 55.0109 156.541 0.0290096 -0.0204216 -0.0125409
157 71.2515 117.669 45.8006 0.0184293 -0.0244162 -0.0183008
158 71.9915 117.669 45.8006 0.0158013 0.0107452 -0.01889
159 184.983 184.177 189.88 0.00917001 -0.00301097 0.00180856
160 185.723 184.177 189.88 0.00949232 0.00768953 0.00274773
161 114.557 81.6538 134.61 0.0259113 0.00983711 0.00118229
162 115.297 81.6538 134.61 0.00896424 0.0281715 0.0164174
163 3.7471 14.3148 18.7317 0.00223034 -0.000731444 -0.00234735
164 4.4871 14.3148 18.7317 0.0578306 -0.00235807 0.0208463
165 62.0887 35.5736 39.8812 0.00926006 0.00552469 0.00983214
166 62.8287 35.5736 39.8812 -0.00167467 -0.00361155 -0.0389003
167 101.088 125.03 52.1139 -0.0190583 0.00658473 -0.0130806
168 101.828 125.03 52.1139 -0.01461 -0.0155661 0.000869677
169 156.422 46.13 177.029 0.0187655 -0.0287249 0.00931746
170 157.162 46.13 177.029 -0.0101088 0.00906294 -0.024125
171 79.2685 83.7634 165.504 -0.0170865 0.000720007 -0.00463218
172 80.0085 83.7634 165.504 -0.0426679 -0.00897117 -0.00126911
173 162.085 59.7495 38.2784 0.0224622 -0.0073939 -0.00930207
174 162.826 59.7495 38.2784 -0.0012012 -0.00789263 -0.0175816
175 12.0687 50.9641 165.512 -0.0352098 0.00358321 -0.021203
176 12.8087 50.9641 165.512 -0.00049454 0.0284355 0.0275202
177 150.514 148.912 149.374 -0.00855377 -0.0167308 0.00666419
178 151.254 148.912 149.374 -0.00464834 -0.0115314 0.0111282
179 107.527 38.5374 156.029 0.00762954 -0.010736 -0.0016692
180 108.267 38.5374 156.029 -0.0176359 -0.00395162 -0.0292633
181 193.654 19.4384 59.3315 0.0188854 0.016064 -0.00632249
182 194.394 19.4384 59.3315 0.00763901 -0.00695397 0.00115112
183 116.705 30.7886 102.286 -0.014337 -0.0086423 0.00640187
184 117.445 30.7886 102.286 0.0244343 0.016317 0.00945249
185 84.3541 33.7678 168.014 0.00673908 -0.00461974 0.0156679
186 85.0941 33.7678 168.014 -0.0081155 -0.0115838 -0.00775025
187 107.625 83.4693 153.114 -0.0119426 0.0191401 0.0183206
188 108.365 83.4693 153.114 0.0164917 -0.00505221 0.0189476
189 26.4056 1.7404 63.527 0.0021937 0.0135826 -0.017863
190 27.1456 1.7404 63.527 0.0122244 0.0142531 -0.00624379
191 70.8981 0.1218 189.185 0.0189479 0.00428827 -0.000104961
192 71.6381 0.1218 189.185 -0.0191348 -0.000591619 -0.00363551
193 110.734 21.0035 85.4287 0.00581169 0.00981582 0.00638636
194 111.474 21.0035 85.4287 0.0238254 -0.0165076 -0.00289169
195 180.685 97.9643 145.522 -0.00233386 -0.0244629 0.0216395
196 181.425 97.9643 145.522 -0.00942534 0.0153739 0.00964514
197 125.362 10.8518 33.3584 -0.00636501 0.00047355 0.018233
198 126.102 10.8518 33.3584 -0.00171267 0.0221716 -0.00629424
199 137.953 192.508 68.8415 0.012548 -0.00760993 -0.00149385
200 138.693 192.508 68.8415 0.00413723 0.0114433 -0.000420288
201 24.5169 103.506 44.2251 0.00781365 0.0156515 -0.00996721
202 25.2569 103.506 44.2251 -0.0142631 0.0220679 0.00736707
203 42.2005 1.9676 84.1982 0.0372484 -0.0024823 -0.00396518
204 42.9405 1.9676 84.1982 0.00129514 0.00409076 0.0402218
205 174.645 119.764 109.324 0.0136953 0.024874 0.00916771
206 175.385 119.764 109.324 -0.00219833 -0.00937655 -0.0105334
207 185.303 31.9715 65.8252 -0.00434828 -0.0288707 0.00125554
208 186.043 31.9715 65.8252 0.00865885 0.00246416 -0.0169105
209 3.9122 43.8167 143.134 -0.000676732 -0.0246218 0.00862689
210 4.6522 43.8167 143.134 0.017628 0.019474 -0.0144583
211 61.2619 74.5667 195.228 0.0148022 -0.00739888 0.0242016
212 62.0019 74.5667 195.228 -0.0112358 -0.0205316 -0.0277223
213 166.965 198.565 46.5355 -0.00854937 -0.0129067 0.00781676
214 167.705 198.565 46.5355 -0.0236314 -0.0241184 0.0045778
215 118.479 83.3788 118.007 -0.00302317 0.0117847 -0.0125743
216 119.219 83.3788 118.007 -0.00146537 -0.0108746 -0.00168333
217 42.6912 158.208 26.6716 0.0168118 -0.0128767 0.0219304
218 43.4312 158.208 26.6716 0.0296461 0.000346527 -0.00436137
219 168.463 119.5 21.0786 -0.0163118 -0.0021824 -0.00465932
220 169.203 119.5 21.0786 0.0161955 0.00034082 -0.0111828
221 51.6409 157.378 151.254 -0.0337994 0.00408882 -0.0266566
222 52.3809 157.378 151.254 -0.00117097 -0.00423882 -0.0157867
223 153.918 165.272 50.1119 0.0104271 0.00849664 -0.00505707
224 154.658 165.272 50.1119 -0.0445469 -0.0246624 0.0273136
225 166.166 157.378 102.346 -0.0173771 -0.0137732 0.00630167
226 166.906 157.378 102.346 0.00314971 0.00523705 -0.0192398
227 190.649 113.601 147.815 -0.00719143 -0.00860874 -0.0117707
228 191.389 113.601 147.815 -0.0152726 -0.034435 -0.0200603
229 151.198 35.4437 8.4951 0.0263943 -0.00584719 -0.00187924
230 151.938 35.4437 8.4951 0.0196046 0.0161418 0.0221439
231 106.897 109.091 40.3461 0.00891386 0.00930021 -0.0227421
232 107.637 109.091 40.3461 0.0081126 0.01836 0.00699312
233 54.1877 198.394 16.8954 -0.00632205 -0.0023446 -0.0104818
234 54.9277 198.394 16.8954 -0.00351567 0.0163458 0.00455924
235 55.0698 133.188 190.905 -0.00555054 -0.00365364 -0.0260127
236 55.8098 133.188 190.905 0.0364225 -0.00268824 -0.00104317
237 8.987 95.8011 189.053 0.0203724 -0.0118057 -0.00645976
238 9.727 95.8011 189.053 0.0133995 0.0234595 -0.00654798
239 32.637 52.275 14.0943 0.00934792 -0.0227671 0.016078
240 33.377 52.275 14.0943 -0.0125697 -0.0243945 -0.0246608
241 188.495 61.1101 175.7 -0.0252124 0.022042 0.00483154
242 189.235 61.1101 175.7 -0.018592 -0.0098427 0.012568
243 170.849 57.7778 53.9771 0.000775522 -0.00754404 0.0177729
244 171.589 57.7778 53.9771 -0.00709924 -0.044377 -0.00836969
245 49.5339 125.909 97.5196 0.00647971 0.00145924 -0.0172693
246 50.2739 125.909 97.5196 0.00175422 0.0110741 0.0163146
247 149.065 91.0494 19.8691 0.00443676 -0.0243898 -0.00474149
248 149.805 91.0494 19.8691 -0.01638 0.0102208 -0.0207098
249 120.271 162.313 102.565 0.00715887 0.014709 -0.027666
250 121.011 162.313 102.565 0.0220485 -0.00250955 0.0222959
251 145.653 82.689 74.4597 -0.0240893 0.00766333 -0.0212567
252 146.393 82.689 74.4597 -0.00317278 0.0195389 0.0150244
253 145.978 191.472 16.9798 -0.00642711 0.000579416 -0.000670823
254 146.718 191.472 16.9798 0.00550947 0.00222576 -0.0212766
255 65.2526 115.276 46.3887 -0.0256752 0.0124459 -0.0320545
256 65.9926 115.276 46.3887 0.00957745 0.0105593 0.00594979
257 147.032 189.279 46.8886 0.0118635 -0.0101426 -0.0136126
258 147.772 189.279 46.8886 -0.0162796 -0.0167766 -0.00545593
259 191.445 104.25 98.7891 0.00590649 0.00867366 -0.00543318
260 192.185 104.25 98.7891 -0.0287753 -0.0243877 -0.0127036
261 41 47.2867 68.1599 -0.00729085 0.00254727 -0.00134322
262 41.74 47.2867 68.1599 0.00178959 -0.0128572 0.022474
263 146.658 146.519 98.1273 -0.00862061 0.0512939 0.0287963
264 147.398 146.519 98.1273 -0.0144151 0.00169598 0.0114216
265 155.682 184.867 173.995 0.018563 0.00745544 -0.0119366
266 156.422 184.867 173.995 0.0239001 0.00728258 0.00388982
267 97.5431 108.29 106.646 -0.0121622 -0.0592178 -0.0186727
268 98.2831 108.29 106.646 -0.00375507 -0.00700155 -0.000263817
269 175.571 78.8111 125.096 -0.000703885 0.00786762 -0.0148909
270 176.311 78.8111 125.096 -0.0214068 -0.0324336 -0.00772179
271 67.2579 46.1175 25.1495 0.000381937 -0.0282827 0.0136395
272 67.9979 46.1175 25.1495 -0.00080041 0.0249711 -0.0350916
273 75.8098 69.4271 113.793 0.00159893 0.0370796 0.00410562
274 76.5498 69.4271 113.793 0.00360087 -0.00779745 0.0132909
275 147.98 138.981 77.6923 0.00460008 -0.00193456 0.0121754
276 148.72 138.981 77.6923 0.00380899 0.0354676 0.00346089
277 114.541 11.6749 30.8997 0.0123585 0.0218715 -0.00807607
278 115.281 11.6749 30.8997 0.000941128 0.000112212 -0.00320706
279 120.761 97.3946 83.1147 0.00454861 -0.0108477 0.00967986
280 121.501 97.3946 83.1147 -0.0193488 0.000234819 0.0108635
281 14.6724 166.309 6.8579 -0.0181401 -0.00199124 -0.0174492
282 15.4124 166.309 6.8579 0.00656551 0.00360053 0.0148118
283 122.71 51.5195 140.148 -0.00203371 -0.0015062 0.00595595
284 123.45 51.5195 140.148 0.0154345 0.0201252 0.0018927
285 89.6027 91.8026 67.0848 -0.00435897 -0.00374933 -0.0112525
286 90.3427 91.8026 67.0848 -0.00657707 -0.0315702 -0.0322796
287 42.5178 131.626 174.128 0.0168009 -0.00517821 0.0187805
288 43.2578 131.626 174.128 0.000196683 -0.00569664 -0.0337881
289 190.805 177.9 73.0718 -0.00359874 -0.00938295 0.00655213
290 191.545 177.9 73.0718 -0.0056439 0.0159924 -0.0180229
291 13.4395 38.274 40.6341 -0.00541225 -0.0349876 -0.0128028
292 14.1795 38.274 40.6341 -0.0011859 0.0206548 0.0217929
293 165.993 115.39 132.587 -0.00803479 0.0154759 0.0135374
294 166.733 115.39 132.587 0.00729866 -0.0154896 -0.0251325
295 116.56 127.359 173.803 0.0109062 0.00993439 0.0165999
296 117.3 127.359 173.803 0.00305381 -0.0163694 0.00601443
297 25.313 20.4889 70.7057 0.0011859 0.0355455 -0.00702322
298 26.053 20.4889 70.7057 0.000671571 0.0181863 0.00281894
299 3.5617 68.6881 129.339 -0.0107631 -0.00955296 0.0276591
300 4.3017 68.6881 129.339 0.0144906 0.0137077 0.0104714
301 143.218 23.8669 124.34 0.0296284 0.00783415 -0.0184098
302 143.958 23.8669 124.34 -0.0192357 0.00411029 0.0327403
303 171.931 25.5236 114.427 0.00453215 0.00370511 0.0166379
304 172.671 25.5236 114.427 -0.00383584 0.00145797 -0.0261793
305 113.844 136.324 188.807 0.000715993 0.0185688 0.0130271
306 114.584 136.324 188.807 0.00751304 -0.0111486 0.011513
307 105.98 73.751 51.9954 -0.0039759 0.0111116 -0.00189686
308 106.72 73.751 51.9954 0.000883514 -0.0215191 -0.017098
309 145.989 135.219 97.2013 0.00189334 0.00722605 0.0210967
310 146.73 135.219 97.2013 -0.0281072 -0.0080718 0.0029677
311 174.863 44.3237 187.107 -0.0279356 -0.0152976 -0.00401928
312 175.603 44.3237 187.107 -0.00110548 -0.0266956 0.00268671
313 132.274 126.121 74.273 0.0122943 0.00479287 -0.00656829
314 133.014 126.121 74.273 0.00351631 0.00588747 0.00668135
315 29.4739 145.407 197.471 -0.0104827 0.0400261 0.0138372
316 30.2139 145.407 197.471 -0.0104711 0.00865433 0.00158721
317 133.933 62.9589 85.4016 0.0152993 -0.0143561 -0.0255947
318 134.673 62.9589 85.4016 -0.00636865 0.0101222 0.00111836
319 137.309 41.804 70.2902 -0.010154 -0.0064462 0.0039027
320 138.049 41.804 70.2902 0.0124608 0.0136666 -0.00521596
321 100.093 168.186 179.674 -0.00488318 -0.0128204 0.000338553
322 100.833 168.186 179.674 -0.000311109 -0.0234247 0.000531634
323 35.102 61.1974 172.67 0.00245527 -0.001294 -0.00522577
324 35.842 61.1974 172.67 -0.00210739 -0.0127678 0.0244874
325 29.0074 0.6585 37.6144 -0.0124865 -0.010463 0.0241683
326 29.7474 0.6585 37.6144 0.00115006 0.000176943 -0.00144326
327 88.3563 122.541 182.23 -0.0112726 0.0188789 -0.00625793
328 89.0963 122.541 182.23 -0.0272763 0.00339029 0.0329926
329 166.3 56.9572 147.286 -0.00822411 0.00134078 -0.020208
330 167.04 56.9572 147.286 -0.00507217 0.00518153 0.010164
331 27.8621 76.2158 26.274 0.00683475 0.0092121 -0.0107811
332 28.6021 76.2158 26.274 0.0348427 -0.0135315 -0.0106993
333 114.92 198.592 50.2869 -0.00102624 0.00846615 0.0262664
334 115.66 198.592 50.2869 -0.0350498 0.0197527 -0.00201548
335 67.3816 4.3957 107.194 -0.00716452 0.0116803 -0.00165334
336 68.1216 4.3957 107.194 0.0273729 0.0151678 0.0154537
337 143.299 164.293 76.307 0.00963087 0.0200696 -0.0156095
338 144.039 164.293 76.307 0.0277298 0.00669672 -0.0111486
339 169.07 57.6109 15.4243 -0.000765354 -0.00544499 -0.000337803
340 169.81 57.6109 15.4243 -0.0171635 0.00441585 -0.0104426
341 92.8591 68.1556 131.874 -0.0213149 -0.0326705 -0.00111322
342 93.5991 68.1556 131.874 -0.0194592 -0.00196308 -0.00164307
343 1.7568 143.543 153.717 0.00799924 0.0151433 -0.00444028
344 2.4968 143.543 153.717 -0.00960542 0.0135437 0.0190713
345 157.211 122.388 113.198 0.0263647 0.00897616 0.0137037
346 157.951 122.388 113.198 0.0201534 -0.00965785 -0.00377125
347 104.398 57.081 107.663 -0.0329193 -0.0259377 0.000989732
348 105.138 57.081 107.663 0.00793008 -0.00175681 -0.00734178
349 59.2932 124.238 120.41 0.00359321 -0.0078919 -0.0137062
350 60.0332 124.238 120.41 0.0239626 0.014666 -0.00712866
351 167.278 131.296 10.7904 -0.0214307 -0.0211877 -0.0112534
352 168.018 131.296 10.7904 -0.0312201 0.0125852 0.00665307
353 29.7893 16.4283 170.864 -0.0247121 0.00577664 -0.0052666
354 30.5293 16.4283 170.864 0.0128185 -0.0210077 -0.0251025
355 26.9872 65.2071 198.795 0.0118658 -0.00966988 0.0181404
356 27.7272 65.2071 198.795 0.0190003 0.00302828 -0.0169974
357 59.8253 55.6204 108.775 0.0260349 -0.00478242 0.0261868
358 60.5653 55.6204 108.775 0.00223154 0.0173974 0.0215454
359 45.5551 83.9092 3.1894 -0.00157658 0.0186931 -0.0129896
360 46.2951 83.9092 3.1894 0.0199401 0.010625 -0.00624701
361 128.358 111.729 80.796 -0.0118963 0.0207937 -0.00739141
362 129.099 111.729 80.796 0.00464516 -0.0100353 -0.00642504
363 21.0807 78.5077 26.302 0.0147004 -0.0131698 0.010885
364 21.8207 78.5077 26.302 -0.00964743 -0.0323771 0.000843232
365 125.371 70.023 142.118 -0.00810996 0.0128779 0.00200556
366 126.111 70.023 142.118 0.0240998 -0.014366 -0.000650406
367 177.357 11.3327 28.7398 -7.60907e-05 0.00563977 0.00743323
368 178.097 11.3327 28.7398 0.00393685 -0.0140829 -0.00571665
369 13.2369 100.24 149.187 -0.0283369 -0.000261353 -0.00633078
370 13.9769 100.24 149.187 -0.0104424 0.0271053 -0.00951082
371 11.3554 37.9923 101.236 -0.0057286 0.00116435 -0.00693675
372 12.0954 37.9923 101.236 0.00212945 0.00149639 -0.0301775
373 17.4726 182.194 157.188 0.0100257 0.0215893 -0.00763754
374 18.2126 182.194 157.188 -0.0126385 -0.00192145 0.0113584
375 49.667 140.968 119.37 0.00246204 -0.00522915 0.0268377
376 50.407 140.968 119.37 0.0212461 0.0185691 0.00287567
377 46.8354 187.168 78.3124 0.0142261 0.0191807 0.0347618
378 47.5754 187.168 78.3124 -0.0144865 -0.00230841 0.00403801
379 184.685 187.204 68.3942 -0.0334116 0.0102007 -0.00718267
380 185.425 187.204 68.3942 0.00508202 0.0253642 0.0211923
381 184.417 85.5281 84.6522 0.0293232 -0.0168133 -0.00563021
382 185.157 85.5281 84.6522 -0.0112218 -0.0195798 -0.00228727
383 48.1288 184.9 176.998 -0.0205122 0.000755779 -0.0387577
384 48.8688 184.9 176.998 0.0105249 0.000961003 0.02095
385 123.831 133.791 99.0158 0.0265043 -0.0329319 0.00968482
386 124.57 133.791 99.0158 -0.00840439 -0.00269919 0.0174252
387 141.32 37.9663 67.4446 0.0201963 0.00792967 -0.0137485
388 142.06 37.9663 67.4446 0.00881387 0.0139154 -0.000249399
389 23.3485 28.1156 191.225 0.00998706 0.00175325 -0.0234605
390 24.0885 28.1156 191.225 0.00268902 0.00239695 0.0173281
391 109.588 43.3912 54.4419 0.0124997 0.00985869 0.0260231
392 110.328 43.3912 54.4419 -0.0243324 0.00605159 -0.0275255
393 46.2197 197.306 193.072 0.0164205 -0.00714139 0.00202161
394 46.9597 197.306 193.072 0.00124239 -0.00146483 0.0176398
395 177.066 120.927 116.755 0.0177379 -0.0149693 0.0389772
396 177.806 120.927 116.755 0.0186168 -0.0204741 0.00951349
397 37.8207 166.774 192.162 0.00106109 -0.0040453 0.00269422
398 38.5607 166.774 192.162 0.00696285 -0.0185949 -0.0029979
399 115.512 3.3875 49.6232 0.00162943 0.00723178 0.0166464
400 116.252 3.3875 49.6232 0.00363615 -0.00664343 -0.035805
